# vtk DataFile Version 2.0
Simple VTK file example
ASCII

DATASET POLYDATA
POINTS 9 float
3.0 0.0 0.0
1.0 1.0 0.0
0.0 3.0 0.0
3.0 0.0 1.0
1.0 1.0 1.0
0.0 3.0 1.0
3.0 2.0 2.0
2.0 2.0 2.0
2.0 3.0 2.0

TRIANGLE_STRIPS 2 14
6 0 3 1 4 2 5
6 3 6 4 7 5 8

POINT_DATA 9
SCALARS nodal float
LOOKUP_TABLE default
0.0 0.1 0.0 0.3 0.6 0.3 0.8 1.0 0.8
