<?xml version="1.0"?>
<VTKFile type="PolyData" version="0.1" byte_order="LittleEndian">
   <PolyData>
      <Piece NumberOfPoints="6" NumberOfVerts="0" NumberOfLines="0" NumberOfStrips="1" NumberOfPolys="2">
         <Points>
            <DataArray type="Float32" NumberOfComponents="3" format="ascii">
            3.0 0.0 -0.5
            1.0 1.0 0.0
            0.0 3.0 0.2
            3.0 0.0 1.5
            1.0 1.0 1.0
            0.0 3.0 0.8
            </DataArray>
         </Points>

         <PointData Scalars="my_scalars">
            <DataArray type="Float32" Name="my_scalars" format="ascii">
            0.0 0.4 0.8 0.2 0.6 1.0
            </DataArray>
         </PointData>

         <Strips>
            <DataArray type="Int32" Name="connectivity" format="ascii">
            0 3 1 4 2 5
            </DataArray>
            <DataArray type="Int32" Name="offsets" format="ascii">
            6
            </DataArray>
         </Strips>

         <Polys>
            <DataArray type="Int32" Name="connectivity" format="ascii">
            0 1 2
            3 4 5
            </DataArray>
            <DataArray type="Int32" Name="offsets" format="ascii">
            3 6
            </DataArray>
         </Polys>
      </Piece>
   </PolyData>
</VTKFile>
